# Makefile to compile *.c files
CC = gcc
SRC = main.c holberton.c
OBJ = $(SRC:.c=.o)
NAME = holberton
CFLAGS = -Wall -Werror -Wextra -pedantic
#Build the executable
all: main.o holberton.o
	$(CC) $? -o $(NAME)

# Deletes temporary files along with the executable
clean:
	$(RM) *~ $(NAME)

#Deletes the object files
oclean:
	$(RM) $(OBJ)

# Deletes all temporary files, executable and object files
fclean: clean oclean

# Forces recompilation of all source files
re: oclean all
